145710259
  -OEChem-01292511132D

192206  0     0  0  0  0  0  0999 V2000
   11.3206    2.8760    0.0000 S   0  0  0  0  0  0  0  0  0  0  0  0
   11.6998   -2.8760    0.0000 S   0  0  0  0  0  0  0  0  0  0  0  0
   13.6402    3.7010    0.0000 S   0  0  0  0  0  0  0  0  0  0  0  0
    9.3802   -3.7010    0.0000 S   0  0  0  0  0  0  0  0  0  0  0  0
   11.5833    5.6889    0.0000 O   0  0  0  0  0  0  0  0  0  0  0  0
   11.4371   -5.6889    0.0000 O   0  0  0  0  0  0  0  0  0  0  0  0
   15.2448    9.3452    0.0000 N   0  0  0  0  0  0  0  0  0  0  0  0
   15.9592    5.9556    0.0000 N   0  0  0  0  0  0  0  0  0  0  0  0
    7.7755   -9.3452    0.0000 N   0  0  0  0  0  0  0  0  0  0  0  0
    7.0612   -5.9556    0.0000 N   0  0  0  0  0  0  0  0  0  0  0  0
   13.1132    1.1671    0.0000 C   0  0  0  0  0  0  0  0  0  0  0  0
    9.9071   -1.1671    0.0000 C   0  0  0  0  0  0  0  0  0  0  0  0
   12.3762    0.5000    0.0000 C   0  0  0  0  0  0  0  0  0  0  0  0
   10.6442   -0.5000    0.0000 C   0  0  0  0  0  0  0  0  0  0  0  0
   11.5102    1.0000    0.0000 C   0  0  0  0  0  0  0  0  0  0  0  0
   11.5102   -1.0000    0.0000 C   0  0  0  0  0  0  0  0  0  0  0  0
   12.7081    2.0749    0.0000 C   0  0  0  0  0  0  0  0  0  0  0  0
   10.3123   -2.0749    0.0000 C   0  0  0  0  0  0  0  0  0  0  0  0
   11.7194    1.9718    0.0000 C   0  0  0  0  0  0  0  0  0  0  0  0
   11.3010   -1.9718    0.0000 C   0  0  0  0  0  0  0  0  0  0  0  0
   12.3762   -0.5000    0.0000 C   0  0  0  0  0  0  0  0  0  0  0  0
   10.6442    0.5000    0.0000 C   0  0  0  0  0  0  0  0  0  0  0  0
   14.0261    1.5754    0.0000 C   0  0  0  0  0  0  0  0  0  0  0  0
   13.6446    0.3200    0.0000 C   0  0  0  0  0  0  0  0  0  0  0  0
    8.9943   -1.5754    0.0000 C   0  0  0  0  0  0  0  0  0  0  0  0
    9.3758   -0.3200    0.0000 C   0  0  0  0  0  0  0  0  0  0  0  0
   12.9119    3.0418    0.0000 C   0  0  0  0  0  0  0  0  0  0  0  0
   10.1085   -3.0418    0.0000 C   0  0  0  0  0  0  0  0  0  0  0  0
   12.0561    3.5359    0.0000 C   0  0  0  0  0  0  0  0  0  0  0  0
   10.9643   -3.5359    0.0000 C   0  0  0  0  0  0  0  0  0  0  0  0
   14.8361    0.9890    0.0000 C   0  0  0  0  0  0  0  0  0  0  0  0
   14.6439    0.3566    0.0000 C   0  0  0  0  0  0  0  0  0  0  0  0
   14.1289    2.5701    0.0000 C   0  0  0  0  0  0  0  0  0  0  0  0
   13.1767   -0.5638    0.0000 C   0  0  0  0  0  0  0  0  0  0  0  0
    8.8915   -2.5701    0.0000 C   0  0  0  0  0  0  0  0  0  0  0  0
    8.3764   -0.3566    0.0000 C   0  0  0  0  0  0  0  0  0  0  0  0
    8.1843   -0.9890    0.0000 C   0  0  0  0  0  0  0  0  0  0  0  0
    9.8437    0.5638    0.0000 C   0  0  0  0  0  0  0  0  0  0  0  0
   12.2628    4.4963    0.0000 C   0  0  0  0  0  0  0  0  0  0  0  0
   10.7575   -4.4963    0.0000 C   0  0  0  0  0  0  0  0  0  0  0  0
   13.2399    4.5981    0.0000 C   0  0  0  0  0  0  0  0  0  0  0  0
    9.7805   -4.5981    0.0000 C   0  0  0  0  0  0  0  0  0  0  0  0
   15.7489    1.3973    0.0000 C   0  0  0  0  0  0  0  0  0  0  0  0
   15.1753   -0.4905    0.0000 C   0  0  0  0  0  0  0  0  0  0  0  0
   15.0417    2.9784    0.0000 C   0  0  0  0  0  0  0  0  0  0  0  0
   13.7081   -1.4109    0.0000 C   0  0  0  0  0  0  0  0  0  0  0  0
    7.9786   -2.9784    0.0000 C   0  0  0  0  0  0  0  0  0  0  0  0
    7.8450    0.4905    0.0000 C   0  0  0  0  0  0  0  0  0  0  0  0
    7.2714   -1.3973    0.0000 C   0  0  0  0  0  0  0  0  0  0  0  0
    9.3123    1.4109    0.0000 C   0  0  0  0  0  0  0  0  0  0  0  0
   15.8517    2.3920    0.0000 C   0  0  0  0  0  0  0  0  0  0  0  0
   14.7074   -1.3743    0.0000 C   0  0  0  0  0  0  0  0  0  0  0  0
    7.1686   -2.3920    0.0000 C   0  0  0  0  0  0  0  0  0  0  0  0
    8.3130    1.3743    0.0000 C   0  0  0  0  0  0  0  0  0  0  0  0
   16.7646    2.8004    0.0000 C   0  0  0  0  0  0  0  0  0  0  0  0
   15.2388   -2.2214    0.0000 C   0  0  0  0  0  0  0  0  0  0  0  0
    6.2558   -2.8004    0.0000 C   0  0  0  0  0  0  0  0  0  0  0  0
    7.7816    2.2214    0.0000 C   0  0  0  0  0  0  0  0  0  0  0  0
   13.7399    5.4641    0.0000 C   0  0  0  0  0  0  0  0  0  0  0  0
    9.2805   -5.4641    0.0000 C   0  0  0  0  0  0  0  0  0  0  0  0
   17.5746    2.2140    0.0000 C   0  0  0  0  0  0  0  0  0  0  0  0
   16.2381   -2.1848    0.0000 C   0  0  0  0  0  0  0  0  0  0  0  0
    5.4458   -2.2140    0.0000 C   0  0  0  0  0  0  0  0  0  0  0  0
    6.7823    2.1848    0.0000 C   0  0  0  0  0  0  0  0  0  0  0  0
   13.2399    6.3302    0.0000 C   0  0  0  0  0  0  0  0  0  0  0  0
    9.7805   -6.3302    0.0000 C   0  0  0  0  0  0  0  0  0  0  0  0
   18.4875    2.6223    0.0000 C   0  0  0  0  0  0  0  0  0  0  0  0
   16.7695   -3.0319    0.0000 C   0  0  0  0  0  0  0  0  0  0  0  0
    4.5329   -2.6223    0.0000 C   0  0  0  0  0  0  0  0  0  0  0  0
    6.2509    3.0319    0.0000 C   0  0  0  0  0  0  0  0  0  0  0  0
   13.6450    7.2379    0.0000 C   0  0  0  0  0  0  0  0  0  0  0  0
    9.3754   -7.2379    0.0000 C   0  0  0  0  0  0  0  0  0  0  0  0
   12.2512    6.4332    0.0000 C   0  0  0  0  0  0  0  0  0  0  0  0
   10.7692   -6.4332    0.0000 C   0  0  0  0  0  0  0  0  0  0  0  0
   19.2975    2.0359    0.0000 C   0  0  0  0  0  0  0  0  0  0  0  0
   17.7688   -2.9953    0.0000 C   0  0  0  0  0  0  0  0  0  0  0  0
    3.7229   -2.0359    0.0000 C   0  0  0  0  0  0  0  0  0  0  0  0
    5.2516    2.9953    0.0000 C   0  0  0  0  0  0  0  0  0  0  0  0
   12.9080    7.9050    0.0000 C   0  0  0  0  0  0  0  0  0  0  0  0
   10.1124   -7.9050    0.0000 C   0  0  0  0  0  0  0  0  0  0  0  0
   12.0419    7.4050    0.0000 C   0  0  0  0  0  0  0  0  0  0  0  0
   10.9784   -7.4050    0.0000 C   0  0  0  0  0  0  0  0  0  0  0  0
   20.2103    2.4442    0.0000 C   0  0  0  0  0  0  0  0  0  0  0  0
   18.3002   -3.8424    0.0000 C   0  0  0  0  0  0  0  0  0  0  0  0
    2.8100   -2.4442    0.0000 C   0  0  0  0  0  0  0  0  0  0  0  0
    4.7202    3.8424    0.0000 C   0  0  0  0  0  0  0  0  0  0  0  0
   14.6235    7.4442    0.0000 C   0  0  0  0  0  0  0  0  0  0  0  0
    8.3969   -7.4442    0.0000 C   0  0  0  0  0  0  0  0  0  0  0  0
   12.9080    8.9050    0.0000 C   0  0  0  0  0  0  0  0  0  0  0  0
   10.1124   -8.9050    0.0000 C   0  0  0  0  0  0  0  0  0  0  0  0
   11.1759    7.9050    0.0000 C   0  0  0  0  0  0  0  0  0  0  0  0
   11.8444   -7.9050    0.0000 C   0  0  0  0  0  0  0  0  0  0  0  0
   12.0419    9.4050    0.0000 C   0  0  0  0  0  0  0  0  0  0  0  0
   10.9784   -9.4050    0.0000 C   0  0  0  0  0  0  0  0  0  0  0  0
   21.0204    1.8578    0.0000 C   0  0  0  0  0  0  0  0  0  0  0  0
   19.2995   -3.8058    0.0000 C   0  0  0  0  0  0  0  0  0  0  0  0
    2.0000   -1.8578    0.0000 C   0  0  0  0  0  0  0  0  0  0  0  0
    3.7208    3.8058    0.0000 C   0  0  0  0  0  0  0  0  0  0  0  0
   11.1759    8.9050    0.0000 C   0  0  0  0  0  0  0  0  0  0  0  0
   11.8444   -8.9050    0.0000 C   0  0  0  0  0  0  0  0  0  0  0  0
   14.9342    8.3947    0.0000 C   0  0  0  0  0  0  0  0  0  0  0  0
   15.2913    6.6999    0.0000 C   0  0  0  0  0  0  0  0  0  0  0  0
    8.0862   -8.3947    0.0000 C   0  0  0  0  0  0  0  0  0  0  0  0
    7.7290   -6.6999    0.0000 C   0  0  0  0  0  0  0  0  0  0  0  0
   12.0419   10.4050    0.0000 C   0  0  0  0  0  0  0  0  0  0  0  0
   10.9784  -10.4050    0.0000 C   0  0  0  0  0  0  0  0  0  0  0  0
   12.9131   -0.8100    0.0000 H   0  0  0  0  0  0  0  0  0  0  0  0
   10.1072    0.8100    0.0000 H   0  0  0  0  0  0  0  0  0  0  0  0
   14.7724    0.3723    0.0000 H   0  0  0  0  0  0  0  0  0  0  0  0
   14.9341    0.9045    0.0000 H   0  0  0  0  0  0  0  0  0  0  0  0
   13.6266    2.9337    0.0000 H   0  0  0  0  0  0  0  0  0  0  0  0
   12.5571   -0.5865    0.0000 H   0  0  0  0  0  0  0  0  0  0  0  0
    9.3937   -2.9337    0.0000 H   0  0  0  0  0  0  0  0  0  0  0  0
    8.0863   -0.9045    0.0000 H   0  0  0  0  0  0  0  0  0  0  0  0
    8.2480   -0.3723    0.0000 H   0  0  0  0  0  0  0  0  0  0  0  0
   10.4633    0.5865    0.0000 H   0  0  0  0  0  0  0  0  0  0  0  0
   11.8488    4.9577    0.0000 H   0  0  0  0  0  0  0  0  0  0  0  0
   11.1716   -4.9577    0.0000 H   0  0  0  0  0  0  0  0  0  0  0  0
   16.2512    1.0338    0.0000 H   0  0  0  0  0  0  0  0  0  0  0  0
   15.7949   -0.4678    0.0000 H   0  0  0  0  0  0  0  0  0  0  0  0
   15.1055    3.5951    0.0000 H   0  0  0  0  0  0  0  0  0  0  0  0
   13.4179   -1.9589    0.0000 H   0  0  0  0  0  0  0  0  0  0  0  0
    7.9149   -3.5951    0.0000 H   0  0  0  0  0  0  0  0  0  0  0  0
    7.2255    0.4678    0.0000 H   0  0  0  0  0  0  0  0  0  0  0  0
    6.7692   -1.0338    0.0000 H   0  0  0  0  0  0  0  0  0  0  0  0
    9.6024    1.9589    0.0000 H   0  0  0  0  0  0  0  0  0  0  0  0
   17.2098    3.2318    0.0000 H   0  0  0  0  0  0  0  0  0  0  0  0
   16.4170    3.3138    0.0000 H   0  0  0  0  0  0  0  0  0  0  0  0
   14.6643   -2.4547    0.0000 H   0  0  0  0  0  0  0  0  0  0  0  0
   15.3687   -2.8277    0.0000 H   0  0  0  0  0  0  0  0  0  0  0  0
    5.8105   -3.2318    0.0000 H   0  0  0  0  0  0  0  0  0  0  0  0
    6.6034   -3.3138    0.0000 H   0  0  0  0  0  0  0  0  0  0  0  0
    8.3560    2.4547    0.0000 H   0  0  0  0  0  0  0  0  0  0  0  0
    7.6516    2.8277    0.0000 H   0  0  0  0  0  0  0  0  0  0  0  0
   14.3599    5.4641    0.0000 H   0  0  0  0  0  0  0  0  0  0  0  0
    8.6605   -5.4641    0.0000 H   0  0  0  0  0  0  0  0  0  0  0  0
   17.1294    1.7825    0.0000 H   0  0  0  0  0  0  0  0  0  0  0  0
   17.9222    1.7006    0.0000 H   0  0  0  0  0  0  0  0  0  0  0  0
   16.8125   -1.9516    0.0000 H   0  0  0  0  0  0  0  0  0  0  0  0
   16.1081   -1.5786    0.0000 H   0  0  0  0  0  0  0  0  0  0  0  0
    5.8910   -1.7825    0.0000 H   0  0  0  0  0  0  0  0  0  0  0  0
    5.0982   -1.7006    0.0000 H   0  0  0  0  0  0  0  0  0  0  0  0
    6.2078    1.9516    0.0000 H   0  0  0  0  0  0  0  0  0  0  0  0
    6.9122    1.5786    0.0000 H   0  0  0  0  0  0  0  0  0  0  0  0
   18.9327    3.0537    0.0000 H   0  0  0  0  0  0  0  0  0  0  0  0
   18.1399    3.1357    0.0000 H   0  0  0  0  0  0  0  0  0  0  0  0
   16.1950   -3.2652    0.0000 H   0  0  0  0  0  0  0  0  0  0  0  0
   16.8994   -3.6382    0.0000 H   0  0  0  0  0  0  0  0  0  0  0  0
    4.0877   -3.0537    0.0000 H   0  0  0  0  0  0  0  0  0  0  0  0
    4.8805   -3.1357    0.0000 H   0  0  0  0  0  0  0  0  0  0  0  0
    6.8253    3.2652    0.0000 H   0  0  0  0  0  0  0  0  0  0  0  0
    6.1209    3.6382    0.0000 H   0  0  0  0  0  0  0  0  0  0  0  0
   18.8522    1.6044    0.0000 H   0  0  0  0  0  0  0  0  0  0  0  0
   19.6451    1.5225    0.0000 H   0  0  0  0  0  0  0  0  0  0  0  0
   18.3433   -2.7621    0.0000 H   0  0  0  0  0  0  0  0  0  0  0  0
   17.6389   -2.3891    0.0000 H   0  0  0  0  0  0  0  0  0  0  0  0
    4.1681   -1.6044    0.0000 H   0  0  0  0  0  0  0  0  0  0  0  0
    3.3753   -1.5225    0.0000 H   0  0  0  0  0  0  0  0  0  0  0  0
    4.6771    2.7621    0.0000 H   0  0  0  0  0  0  0  0  0  0  0  0
    5.3815    2.3891    0.0000 H   0  0  0  0  0  0  0  0  0  0  0  0
   20.6556    2.8757    0.0000 H   0  0  0  0  0  0  0  0  0  0  0  0
   19.8627    2.9576    0.0000 H   0  0  0  0  0  0  0  0  0  0  0  0
   17.7257   -4.0757    0.0000 H   0  0  0  0  0  0  0  0  0  0  0  0
   18.4302   -4.4487    0.0000 H   0  0  0  0  0  0  0  0  0  0  0  0
    2.3648   -2.8757    0.0000 H   0  0  0  0  0  0  0  0  0  0  0  0
    3.1576   -2.9576    0.0000 H   0  0  0  0  0  0  0  0  0  0  0  0
    5.2946    4.0757    0.0000 H   0  0  0  0  0  0  0  0  0  0  0  0
    4.5902    4.4487    0.0000 H   0  0  0  0  0  0  0  0  0  0  0  0
   13.4449    9.2150    0.0000 H   0  0  0  0  0  0  0  0  0  0  0  0
    9.5754   -9.2150    0.0000 H   0  0  0  0  0  0  0  0  0  0  0  0
   10.6390    7.5950    0.0000 H   0  0  0  0  0  0  0  0  0  0  0  0
   12.3814   -7.5950    0.0000 H   0  0  0  0  0  0  0  0  0  0  0  0
   20.6568    1.3556    0.0000 H   0  0  0  0  0  0  0  0  0  0  0  0
   21.5226    1.4943    0.0000 H   0  0  0  0  0  0  0  0  0  0  0  0
   21.3839    2.3601    0.0000 H   0  0  0  0  0  0  0  0  0  0  0  0
   19.3222   -4.4254    0.0000 H   0  0  0  0  0  0  0  0  0  0  0  0
   19.9191   -3.7831    0.0000 H   0  0  0  0  0  0  0  0  0  0  0  0
   19.2768   -3.1862    0.0000 H   0  0  0  0  0  0  0  0  0  0  0  0
    2.3636   -1.3556    0.0000 H   0  0  0  0  0  0  0  0  0  0  0  0
    1.4978   -1.4943    0.0000 H   0  0  0  0  0  0  0  0  0  0  0  0
    1.6364   -2.3601    0.0000 H   0  0  0  0  0  0  0  0  0  0  0  0
    3.6981    4.4254    0.0000 H   0  0  0  0  0  0  0  0  0  0  0  0
    3.1012    3.7831    0.0000 H   0  0  0  0  0  0  0  0  0  0  0  0
    3.7436    3.1862    0.0000 H   0  0  0  0  0  0  0  0  0  0  0  0
   10.6390    9.2150    0.0000 H   0  0  0  0  0  0  0  0  0  0  0  0
   12.3814   -9.2150    0.0000 H   0  0  0  0  0  0  0  0  0  0  0  0
   12.6619   10.4050    0.0000 H   0  0  0  0  0  0  0  0  0  0  0  0
   12.0419   11.0250    0.0000 H   0  0  0  0  0  0  0  0  0  0  0  0
   11.4219   10.4050    0.0000 H   0  0  0  0  0  0  0  0  0  0  0  0
   10.3584  -10.4050    0.0000 H   0  0  0  0  0  0  0  0  0  0  0  0
   10.9784  -11.0250    0.0000 H   0  0  0  0  0  0  0  0  0  0  0  0
   11.5984  -10.4050    0.0000 H   0  0  0  0  0  0  0  0  0  0  0  0
  1 19  1  0  0  0  0
  1 29  1  0  0  0  0
  2 20  1  0  0  0  0
  2 30  1  0  0  0  0
  3 27  1  0  0  0  0
  3 41  1  0  0  0  0
  4 28  1  0  0  0  0
  4 42  1  0  0  0  0
  5 73  2  0  0  0  0
  6 74  2  0  0  0  0
  7101  3  0  0  0  0
  8102  3  0  0  0  0
  9103  3  0  0  0  0
 10104  3  0  0  0  0
 11 13  1  0  0  0  0
 11 17  1  0  0  0  0
 11 23  1  0  0  0  0
 11 24  1  0  0  0  0
 12 14  1  0  0  0  0
 12 18  1  0  0  0  0
 12 25  1  0  0  0  0
 12 26  1  0  0  0  0
 13 15  2  0  0  0  0
 13 21  1  0  0  0  0
 14 16  1  0  0  0  0
 14 22  2  0  0  0  0
 15 19  1  0  0  0  0
 15 22  1  0  0  0  0
 16 20  1  0  0  0  0
 16 21  2  0  0  0  0
 17 19  2  0  0  0  0
 17 27  1  0  0  0  0
 18 20  2  0  0  0  0
 18 28  1  0  0  0  0
 21107  1  0  0  0  0
 22108  1  0  0  0  0
 23 31  2  0  0  0  0
 23 33  1  0  0  0  0
 24 32  2  0  0  0  0
 24 34  1  0  0  0  0
 25 35  2  0  0  0  0
 25 37  1  0  0  0  0
 26 36  2  0  0  0  0
 26 38  1  0  0  0  0
 27 29  2  0  0  0  0
 28 30  2  0  0  0  0
 29 39  1  0  0  0  0
 30 40  1  0  0  0  0
 31 43  1  0  0  0  0
 31109  1  0  0  0  0
 32 44  1  0  0  0  0
 32110  1  0  0  0  0
 33 45  2  0  0  0  0
 33111  1  0  0  0  0
 34 46  2  0  0  0  0
 34112  1  0  0  0  0
 35 47  1  0  0  0  0
 35113  1  0  0  0  0
 36 48  1  0  0  0  0
 36114  1  0  0  0  0
 37 49  2  0  0  0  0
 37115  1  0  0  0  0
 38 50  2  0  0  0  0
 38116  1  0  0  0  0
 39 41  2  0  0  0  0
 39117  1  0  0  0  0
 40 42  2  0  0  0  0
 40118  1  0  0  0  0
 41 59  1  0  0  0  0
 42 60  1  0  0  0  0
 43 51  2  0  0  0  0
 43119  1  0  0  0  0
 44 52  2  0  0  0  0
 44120  1  0  0  0  0
 45 51  1  0  0  0  0
 45121  1  0  0  0  0
 46 52  1  0  0  0  0
 46122  1  0  0  0  0
 47 53  2  0  0  0  0
 47123  1  0  0  0  0
 48 54  2  0  0  0  0
 48124  1  0  0  0  0
 49 53  1  0  0  0  0
 49125  1  0  0  0  0
 50 54  1  0  0  0  0
 50126  1  0  0  0  0
 51 55  1  0  0  0  0
 52 56  1  0  0  0  0
 53 57  1  0  0  0  0
 54 58  1  0  0  0  0
 55 61  1  0  0  0  0
 55127  1  0  0  0  0
 55128  1  0  0  0  0
 56 62  1  0  0  0  0
 56129  1  0  0  0  0
 56130  1  0  0  0  0
 57 63  1  0  0  0  0
 57131  1  0  0  0  0
 57132  1  0  0  0  0
 58 64  1  0  0  0  0
 58133  1  0  0  0  0
 58134  1  0  0  0  0
 59 65  2  0  0  0  0
 59135  1  0  0  0  0
 60 66  2  0  0  0  0
 60136  1  0  0  0  0
 61 67  1  0  0  0  0
 61137  1  0  0  0  0
 61138  1  0  0  0  0
 62 68  1  0  0  0  0
 62139  1  0  0  0  0
 62140  1  0  0  0  0
 63 69  1  0  0  0  0
 63141  1  0  0  0  0
 63142  1  0  0  0  0
 64 70  1  0  0  0  0
 64143  1  0  0  0  0
 64144  1  0  0  0  0
 65 71  1  0  0  0  0
 65 73  1  0  0  0  0
 66 72  1  0  0  0  0
 66 74  1  0  0  0  0
 67 75  1  0  0  0  0
 67145  1  0  0  0  0
 67146  1  0  0  0  0
 68 76  1  0  0  0  0
 68147  1  0  0  0  0
 68148  1  0  0  0  0
 69 77  1  0  0  0  0
 69149  1  0  0  0  0
 69150  1  0  0  0  0
 70 78  1  0  0  0  0
 70151  1  0  0  0  0
 70152  1  0  0  0  0
 71 79  1  0  0  0  0
 71 87  2  0  0  0  0
 72 80  1  0  0  0  0
 72 88  2  0  0  0  0
 73 81  1  0  0  0  0
 74 82  1  0  0  0  0
 75 83  1  0  0  0  0
 75153  1  0  0  0  0
 75154  1  0  0  0  0
 76 84  1  0  0  0  0
 76155  1  0  0  0  0
 76156  1  0  0  0  0
 77 85  1  0  0  0  0
 77157  1  0  0  0  0
 77158  1  0  0  0  0
 78 86  1  0  0  0  0
 78159  1  0  0  0  0
 78160  1  0  0  0  0
 79 81  2  0  0  0  0
 79 89  1  0  0  0  0
 80 82  2  0  0  0  0
 80 90  1  0  0  0  0
 81 91  1  0  0  0  0
 82 92  1  0  0  0  0
 83 95  1  0  0  0  0
 83161  1  0  0  0  0
 83162  1  0  0  0  0
 84 96  1  0  0  0  0
 84163  1  0  0  0  0
 84164  1  0  0  0  0
 85 97  1  0  0  0  0
 85165  1  0  0  0  0
 85166  1  0  0  0  0
 86 98  1  0  0  0  0
 86167  1  0  0  0  0
 86168  1  0  0  0  0
 87101  1  0  0  0  0
 87102  1  0  0  0  0
 88103  1  0  0  0  0
 88104  1  0  0  0  0
 89 93  2  0  0  0  0
 89169  1  0  0  0  0
 90 94  2  0  0  0  0
 90170  1  0  0  0  0
 91 99  2  0  0  0  0
 91171  1  0  0  0  0
 92100  2  0  0  0  0
 92172  1  0  0  0  0
 93 99  1  0  0  0  0
 93105  1  0  0  0  0
 94100  1  0  0  0  0
 94106  1  0  0  0  0
 95173  1  0  0  0  0
 95174  1  0  0  0  0
 95175  1  0  0  0  0
 96176  1  0  0  0  0
 96177  1  0  0  0  0
 96178  1  0  0  0  0
 97179  1  0  0  0  0
 97180  1  0  0  0  0
 97181  1  0  0  0  0
 98182  1  0  0  0  0
 98183  1  0  0  0  0
 98184  1  0  0  0  0
 99185  1  0  0  0  0
100186  1  0  0  0  0
105187  1  0  0  0  0
105188  1  0  0  0  0
105189  1  0  0  0  0
106190  1  0  0  0  0
106191  1  0  0  0  0
106192  1  0  0  0  0
M  END
> <PUBCHEM_COMPOUND_CID>
145710259

> <PUBCHEM_COMPOUND_CANONICALIZED>
1

> <PUBCHEM_CACTVS_COMPLEXITY>
3110

> <PUBCHEM_CACTVS_HBOND_ACCEPTOR>
10

> <PUBCHEM_CACTVS_HBOND_DONOR>
0

> <PUBCHEM_CACTVS_ROTATABLE_BOND>
26

> <PUBCHEM_CACTVS_SUBSKEYS>
AAADcfB/sABwAAAAAAAAAAAAAAAAAaNGjRAwYMGDAAASJGAB/gAAHgQAAAAADgSB2AAyAYAAAAicBqBSAAAjAIAkCBBIiBkAAMgIoDKgFRCAIQAggAAoiYcIiMCPwAACAAAQAACAAAQAACAAAUAACgAAAA==

> <PUBCHEM_IUPAC_OPENEYE_NAME>
2-[(2Z)-2-[[20-[(Z)-[3-(dicyanomethylene)-5-methyl-1-oxo-indan-2-ylidene]methyl]-12,12,24,24-tetrakis(4-hexylphenyl)-5,9,17,21-tetrathiaheptacyclo[13.9.0.03,13.04,11.06,10.016,23.018,22]tetracosa-1(15),2,4(11),6(10),7,13,16(23),18(22),19-nonaen-8-yl]methylene]-6-methyl-3-oxo-indan-1-ylidene]propanedinitrile

> <PUBCHEM_IUPAC_CAS_NAME>
2-[(2Z)-2-[[20-[(Z)-[3-(dicyanomethylidene)-5-methyl-1-oxo-2-indenylidene]methyl]-12,12,24,24-tetrakis(4-hexylphenyl)-5,9,17,21-tetrathiaheptacyclo[13.9.0.03,13.04,11.06,10.016,23.018,22]tetracosa-1(15),2,4(11),6(10),7,13,16(23),18(22),19-nonaen-8-yl]methylidene]-6-methyl-3-oxo-1-indenylidene]propanedinitrile

> <PUBCHEM_IUPAC_NAME_MARKUP>
2-[(2<I>Z</I>)-2-[[20-[(<I>Z</I>)-[3-(dicyanomethylidene)-5-methyl-1-oxoinden-2-ylidene]methyl]-12,12,24,24-tetrakis(4-hexylphenyl)-5,9,17,21-tetrathiaheptacyclo[13.9.0.0<SUP>3,13</SUP>.0<SUP>4,11</SUP>.0<SUP>6,10</SUP>.0<SUP>16,23</SUP>.0<SUP>18,22</SUP>]tetracosa-1(15),2,4(11),6(10),7,13,16(23),18(22),19-nonaen-8-yl]methylidene]-6-methyl-3-oxoinden-1-ylidene]propanedinitrile

> <PUBCHEM_IUPAC_NAME>
2-[(2Z)-2-[[20-[(Z)-[3-(dicyanomethylidene)-5-methyl-1-oxoinden-2-ylidene]methyl]-12,12,24,24-tetrakis(4-hexylphenyl)-5,9,17,21-tetrathiaheptacyclo[13.9.0.03,13.04,11.06,10.016,23.018,22]tetracosa-1(15),2,4(11),6(10),7,13,16(23),18(22),19-nonaen-8-yl]methylidene]-6-methyl-3-oxoinden-1-ylidene]propanedinitrile

> <PUBCHEM_IUPAC_SYSTEMATIC_NAME>
2-[(2Z)-2-[[20-[(Z)-[3-(dicyanomethylidene)-5-methyl-1-oxidanylidene-inden-2-ylidene]methyl]-12,12,24,24-tetrakis(4-hexylphenyl)-5,9,17,21-tetrathiaheptacyclo[13.9.0.03,13.04,11.06,10.016,23.018,22]tetracosa-1(15),2,4(11),6(10),7,13,16(23),18(22),19-nonaen-8-yl]methylidene]-6-methyl-3-oxidanylidene-inden-1-ylidene]propanedinitrile

> <PUBCHEM_IUPAC_TRADITIONAL_NAME>
2-[(2Z)-2-[[20-[(Z)-[3-(dicyanomethylene)-1-keto-5-methyl-indan-2-ylidene]methyl]-12,12,24,24-tetrakis(4-hexylphenyl)-5,9,17,21-tetrathiaheptacyclo[13.9.0.03,13.04,11.06,10.016,23.018,22]tetracosa-1(15),2,4(11),6(10),7,13,16(23),18(22),19-nonaen-8-yl]methylene]-3-keto-6-methyl-indan-1-ylidene]malononitrile

> <PUBCHEM_IUPAC_INCHI>
InChI=1S/C96H86N4O2S4/c1-7-11-15-19-23-61-29-37-67(38-30-61)95(68-39-31-62(32-40-68)24-20-16-12-8-2)81-53-78-82(54-77(81)91-87(95)93-83(105-91)51-71(103-93)49-79-85(65(55-97)56-98)75-47-59(5)27-45-73(75)89(79)101)96(69-41-33-63(34-42-69)25-21-17-13-9-3,70-43-35-64(36-44-70)26-22-18-14-10-4)88-92(78)106-84-52-72(104-94(84)88)50-80-86(66(57-99)58-100)76-48-60(6)28-46-74(76)90(80)102/h27-54H,7-26H2,1-6H3/b79-49-,80-50-

> <PUBCHEM_IUPAC_INCHIKEY>
POPQTDZOTZRWQX-SLEPYUFOSA-N

> <PUBCHEM_XLOGP3_AA>
28.3

> <PUBCHEM_EXACT_MASS>
1455.56671753

> <PUBCHEM_MOLECULAR_FORMULA>
C96H86N4O2S4

> <PUBCHEM_MOLECULAR_WEIGHT>
1456.0

> <PUBCHEM_SMILES>
CCCCCCC1=CC=C(C=C1)C2(C3=CC4=C(C=C3C5=C2C6=C(S5)C=C(S6)/C=C\7/C(=C(C#N)C#N)C8=C(C7=O)C=CC(=C8)C)C(C9=C4SC1=C9SC(=C1)/C=C\1/C(=C(C#N)C#N)C2=C(C1=O)C=CC(=C2)C)(C1=CC=C(C=C1)CCCCCC)C1=CC=C(C=C1)CCCCCC)C1=CC=C(C=C1)CCCCCC

> <PUBCHEM_OPENEYE_CAN_SMILES>
CCCCCCC1=CC=C(C=C1)C2(C3=CC4=C(C=C3C5=C2C6=C(S5)C=C(S6)C=C7C(=C(C#N)C#N)C8=C(C7=O)C=CC(=C8)C)C(C9=C4SC1=C9SC(=C1)C=C1C(=C(C#N)C#N)C2=C(C1=O)C=CC(=C2)C)(C1=CC=C(C=C1)CCCCCC)C1=CC=C(C=C1)CCCCCC)C1=CC=C(C=C1)CCCCCC

> <PUBCHEM_OPENEYE_ISO_SMILES>
CCCCCCC1=CC=C(C=C1)C2(C3=CC4=C(C=C3C5=C2C6=C(S5)C=C(S6)/C=C\7/C(=C(C#N)C#N)C8=C(C7=O)C=CC(=C8)C)C(C9=C4SC1=C9SC(=C1)/C=C\1/C(=C(C#N)C#N)C2=C(C1=O)C=CC(=C2)C)(C1=CC=C(C=C1)CCCCCC)C1=CC=C(C=C1)CCCCCC)C1=CC=C(C=C1)CCCCCC

> <PUBCHEM_CACTVS_TPSA>
242

> <PUBCHEM_MONOISOTOPIC_WEIGHT>
1454.56336269

> <PUBCHEM_TOTAL_CHARGE>
0

> <PUBCHEM_HEAVY_ATOM_COUNT>
106

> <PUBCHEM_ATOM_DEF_STEREO_COUNT>
0

> <PUBCHEM_ATOM_UDEF_STEREO_COUNT>
0

> <PUBCHEM_BOND_DEF_STEREO_COUNT>
2

> <PUBCHEM_BOND_UDEF_STEREO_COUNT>
0

> <PUBCHEM_ISOTOPIC_ATOM_COUNT>
0

> <PUBCHEM_COMPONENT_COUNT>
1

> <PUBCHEM_CACTVS_TAUTO_COUNT>
-1

> <PUBCHEM_COORDINATE_TYPE>
1
5
255

> <PUBCHEM_BONDANNOTATIONS>
1  19  8
1  29  8
13  15  8
13  21  8
14  16  8
14  22  8
15  22  8
16  21  8
17  19  8
17  27  8
18  20  8
18  28  8
2  20  8
2  30  8
23  31  8
23  33  8
24  32  8
24  34  8
25  35  8
25  37  8
26  36  8
26  38  8
27  29  8
28  30  8
29  39  8
3  27  8
3  41  8
30  40  8
31  43  8
32  44  8
33  45  8
34  46  8
35  47  8
36  48  8
37  49  8
38  50  8
39  41  8
4  28  8
4  42  8
40  42  8
43  51  8
44  52  8
45  51  8
46  52  8
47  53  8
48  54  8
49  53  8
50  54  8
79  81  8
79  89  8
80  82  8
80  90  8
81  91  8
82  92  8
89  93  8
90  94  8
91  99  8
92  100  8
93  99  8
94  100  8

$$$$
